# vtk DataFile Version 1.0 
Bar_TO_3D 
ASCII 
DATASET UNSTRUCTURED_GRID 
POINTS 8385 float 
0.000000 0.000000 
0.000000 0.000000 0.156250 
0.000000 0.000000 0.312500 
0.000000 0.000000 0.468750 
0.000000 0.000000 0.625000 
0.000000 0.000000 0.781250 
0.000000 0.000000 0.937500 
0.000000 0.000000 1.093750 
0.000000 0.000000 1.250000 
0.000000 0.000000 1.406250 
0.000000 0.000000 1.562500 
0.000000 0.000000 1.718750 
0.000000 0.000000 1.875000 
0.000000 0.000000 2.031250 
0.000000 0.000000 2.187500 
0.000000 0.000000 2.343750 
0.000000 0.000000 2.500000 
0.000000 0.000000 2.656250 
0.000000 0.000000 2.812500 
0.000000 0.000000 2.968750 
0.000000 0.000000 3.125000 
0.000000 0.000000 3.281250 
0.000000 0.000000 3.437500 
0.000000 0.000000 3.593750 
0.000000 0.000000 3.750000 
0.000000 0.000000 3.906250 
0.000000 0.000000 4.062500 
0.000000 0.000000 4.218750 
0.000000 0.000000 4.375000 
0.000000 0.000000 4.531250 
0.000000 0.000000 4.687500 
0.000000 0.000000 4.843750 
0.000000 0.000000 5.000000 
0.000000 0.000000 5.156250 
0.000000 0.000000 5.312500 
0.000000 0.000000 5.468750 
0.000000 0.000000 5.625000 
0.000000 0.000000 5.781250 
0.000000 0.000000 5.937500 
0.000000 0.000000 6.093750 
0.000000 0.000000 6.250000 
0.000000 0.000000 6.406250 
0.000000 0.000000 6.562500 
0.000000 0.000000 6.718750 
0.000000 0.000000 6.875000 
0.000000 0.000000 7.031250 
0.000000 0.000000 7.187500 
0.000000 0.000000 7.343750 
0.000000 0.000000 7.500000 
0.000000 0.000000 7.656250 
0.000000 0.000000 7.812500 
0.000000 0.000000 7.968750 
0.000000 0.000000 8.125000 
0.000000 0.000000 8.281250 
0.000000 0.000000 8.437500 
0.000000 0.000000 8.593750 
0.000000 0.000000 8.750000 
0.000000 0.000000 8.906250 
0.000000 0.000000 9.062500 
0.000000 0.000000 9.218750 
0.000000 0.000000 9.375000 
0.000000 0.000000 9.531250 
0.000000 0.000000 9.687500 
0.000000 0.000000 9.843750 
0.000000 0.000000 10.000000 
0.000000 0.312500 0.000000 
0.000000 0.312500 0.156250 
0.000000 0.312500 0.312500 
0.000000 0.312500 0.468750 
0.000000 0.312500 0.625000 
0.000000 0.312500 0.781250 
0.000000 0.312500 0.937500 
0.000000 0.312500 1.093750 
0.000000 0.312500 1.250000 
0.000000 0.312500 1.406250 
0.000000 0.312500 1.562500 
0.000000 0.312500 1.718750 
0.000000 0.312500 1.875000 
0.000000 0.312500 2.031250 
0.000000 0.312500 2.187500 
0.000000 0.312500 2.343750 
0.000000 0.312500 2.500000 
0.000000 0.312500 2.656250 
0.000000 0.312500 2.812500 
0.000000 0.312500 2.968750 
0.000000 0.312500 3.125000 
0.000000 0.312500 3.281250 
0.000000 0.312500 3.437500 
0.000000 0.312500 3.593750 
0.000000 0.312500 3.750000 
0.000000 0.312500 3.906250 
0.000000 0.312500 4.062500 
0.000000 0.312500 4.218750 
0.000000 0.312500 4.375000 
0.000000 0.312500 4.531250 
0.000000 0.312500 4.687500 
0.000000 0.312500 4.843750 
0.000000 0.312500 5.000000 
0.000000 0.312500 5.156250 
0.000000 0.312500 5.312500 
0.000000 0.312500 5.468750 
0.000000 0.312500 5.625000 
0.000000 0.312500 5.781250 
0.000000 0.312500 5.937500 
0.000000 0.312500 6.093750 
0.000000 0.312500 6.250000 
0.000000 0.312500 6.406250 
0.000000 0.312500 6.562500 
0.000000 0.312500 6.718750 
0.000000 0.312500 6.875000 
0.000000 0.312500 7.031250 
0.000000 0.312500 7.187500 
0.000000 0.312500 7.343750 
0.000000 0.312500 7.500000 
0.000000 0.312500 7.656250 
0.000000 0.312500 7.812500 
0.000000 0.312500 7.968750 
0.000000 0.312500 8.125000 
0.000000 0.312500 8.281250 
0.000000 0.312500 8.437500 
0.000000 0.312500 8.593750 
0.000000 0.312500 8.750000 
0.000000 0.312500 8.906250 
0.000000 0.312500 9.062500 
0.000000 0.312500 9.218750 
0.000000 0.312500 9.375000 
0.000000 0.312500 9.531250 
0.000000 0.312500 9.687500 
0.000000 0.312500 9.843750 
0.000000 0.312500 10.000000 
0.000000 0.625000 0.000000 
0.000000 0.625000 0.156250 
0.000000 0.625000 0.312500 
0.000000 0.625000 0.468750 
0.000000 0.625000 0.625000 
0.000000 0.625000 0.781250 
0.000000 0.625000 0.937500 
0.000000 0.625000 1.093750 
0.000000 0.625000 1.250000 
0.000000 0.625000 1.406250 
0.000000 0.625000 1.562500 
0.000000 0.625000 1.718750 
0.000000 0.625000 1.875000 
0.000000 0.625000 2.031250 
0.000000 0.625000 2.187500 
0.000000 0.625000 2.343750 
0.000000 0.625000 2.500000 
0.000000 0.625000 2.656250 
0.000000 0.625000 2.812500 
0.000000 0.625000 2.968750 
0.000000 0.625000 3.125000 
0.000000 0.625000 3.281250 
0.000000 0.625000 3.437500 
0.000000 0.625000 3.593750 
0.000000 0.625000 3.750000 
0.000000 0.625000 3.906250 
0.000000 0.625000 4.062500 
0.000000 0.625000 4.218750 
0.000000 0.625000 4.375000 
0.000000 0.625000 4.531250 
0.000000 0.625000 4.687500 
0.000000 0.625000 4.843750 
0.000000 0.625000 5.000000 
0.000000 0.625000 5.156250 
0.000000 0.625000 5.312500 
0.000000 0.625000 5.468750 
0.000000 0.625000 5.625000 
0.000000 0.625000 5.781250 
0.000000 0.625000 5.937500 
0.000000 0.625000 6.093750 
0.000000 0.625000 6.250000 
0.000000 0.625000 6.406250 
0.000000 0.625000 6.562500 
0.000000 0.625000 6.718750 
0.000000 0.625000 6.875000 
0.000000 0.625000 7.031250 
0.000000 0.625000 7.187500 
0.000000 0.625000 7.343750 
0.000000 0.625000 7.500000 
0.000000 0.625000 7.656250 
0.000000 0.625000 7.812500 
0.000000 0.625000 7.968750 
0.000000 0.625000 8.125000 
0.000000 0.625000 8.281250 
0.000000 0.625000 8.437500 
0.000000 0.625000 8.593750 
0.000000 0.625000 8.750000 
0.000000 0.625000 8.906250 
0.000000 0.625000 9.062500 
0.000000 0.625000 9.218750 
0.000000 0.625000 9.375000 
0.000000 0.625000 9.531250 
0.000000 0.625000 9.687500 
0.000000 0.625000 9.843750 
0.000000 0.625000 10.000000 
0.000000 0.937500 0.000000 
0.000000 0.937500 0.156250 
0.000000 0.937500 0.312500 
0.000000 0.937500 0.468750 
0.000000 0.937500 0.625000 
0.000000 0.937500 0.781250 
0.000000 0.937500 0.937500 
0.000000 0.937500 1.093750 
0.000000 0.937500 1.250000 
0.000000 0.937500 1.406250 
0.000000 0.937500 1.562500 
0.000000 0.937500 1.718750 
0.000000 0.937500 1.875000 
0.000000 0.937500 2.031250 
0.000000 0.937500 2.187500 
0.000000 0.937500 2.343750 
0.000000 0.937500 2.500000 
0.000000 0.937500 2.656250 
0.000000 0.937500 2.812500 
0.000000 0.937500 2.968750 
0.000000 0.937500 3.125000 
0.000000 0.937500 3.281250 
0.000000 0.937500 3.437500 
0.000000 0.937500 3.593750 
0.000000 0.937500 3.750000 
0.000000 0.937500 3.906250 
0.000000 0.937500 4.062500 
0.000000 0.937500 4.218750 
0.000000 0.937500 4.375000 
0.000000 0.937500 4.531250 
0.000000 0.937500 4.687500 
0.000000 0.937500 4.843750 
0.000000 0.937500 5.000000 
0.000000 0.937500 5.156250 
0.000000 0.937500 5.312500 
0.000000 0.937500 5.468750 
0.000000 0.937500 5.625000 
0.000000 0.937500 5.781250 
0.000000 0.937500 5.937500 
0.000000 0.937500 6.093750 
0.000000 0.937500 6.250000 
0.000000 0.937500 6.406250 
0.000000 0.937500 6.562500 
0.000000 0.937500 6.718750 
0.000000 0.937500 6.875000 
0.000000 0.937500 7.031250 
0.000000 0.937500 7.187500 
0.000000 0.937500 7.343750 
0.000000 0.937500 7.500000 
0.000000 0.937500 7.656250 
0.000000 0.937500 7.812500 
0.000000 0.937500 7.968750 
0.000000 0.937500 8.125000 
0.000000 0.937500 8.281250 
0.000000 0.937500 8.437500 
0.000000 0.937500 8.593750 
0.000000 0.937500 8.750000 
0.000000 0.937500 8.906250 
0.000000 0.937500 9.062500 
0.000000 0.937500 9.218750 
0.000000 0.937500 9.375000 
0.000000 0.937500 9.531250 
0.000000 0.937500 9.687500 
0.000000 0.937500 9.843750 
0.000000 0.937500 10.000000 
0.000000 1.250000 0.000000 
0.000000 1.250000 0.156250 
0.000000 1.250000 0.312500 
0.000000 1.250000 0.468750 
0.000000 1.250000 0.625000 
0.000000 1.250000 0.781250 
0.000000 1.250000 0.937500 
0.000000 1.250000 1.093750 
0.000000 1.250000 1.250000 
0.000000 1.250000 1.406250 
0.000000 1.250000 1.562500 
0.000000 1.250000 1.718750 
0.000000 1.250000 1.875000 
0.000000 1.250000 2.031250 
0.000000 1.250000 2.187500 
0.000000 1.250000 2.343750 
0.000000 1.250000 2.500000 
0.000000 1.250000 2.656250 
0.000000 1.250000 2.812500 
0.000000 1.250000 2.968750 
0.000000 1.250000 3.125000 
0.000000 1.250000 3.281250 
0.000000 1.250000 3.437500 
0.000000 1.250000 3.593750 
0.000000 1.250000 3.750000 
0.000000 1.250000 3.906250 
0.000000 1.250000 4.062500 
0.000000 1.250000 4.218750 
0.000000 1.250000 4.375000 
0.000000 1.250000 4.531250 
0.000000 1.250000 4.687500 
0.000000 1.250000 4.843750 
0.000000 1.250000 5.000000 
0.000000 1.250000 5.156250 
0.000000 1.250000 5.312500 
0.000000 1.250000 5.468750 
0.000000 1.250000 5.625000 
0.000000 1.250000 5.781250 
0.000000 1.250000 5.937500 
0.000000 1.250000 6.093750 
0.000000 1.250000 6.250000 
0.000000 1.250000 6.406250 
0.000000 1.250000 6.562500 
0.000000 1.250000 6.718750 
0.000000 1.250000 6.875000 
0.000000 1.250000 7.031250 
0.000000 1.250000 7.187500 
0.000000 1.250000 7.343750 
0.000000 1.250000 7.500000 
0.000000 1.250000 7.656250 
0.000000 1.250000 7.812500 
0.000000 1.250000 7.968750 
0.000000 1.250000 8.125000 
0.000000 1.250000 8.281250 
0.000000 1.250000 8.437500 
0.000000 1.250000 8.593750 
0.000000 1.250000 8.750000 
0.000000 1.250000 8.906250 
0.000000 1.250000 9.062500 
0.000000 1.250000 9.218750 
0.000000 1.250000 9.375000 
0.000000 1.250000 9.531250 
0.000000 1.250000 9.687500 
0.000000 1.250000 9.843750 
0.000000 1.250000 10.000000 
0.000000 1.562500 0.000000 
0.000000 1.562500 0.156250 
0.000000 1.562500 0.312500 
0.000000 1.562500 0.468750 
0.000000 1.562500 0.625000 
0.000000 1.562500 0.781250 
0.000000 1.562500 0.937500 
0.000000 1.562500 1.093750 
0.000000 1.562500 1.250000 
0.000000 1.562500 1.406250 
0.000000 1.562500 1.562500 
0.000000 1.562500 1.718750 
0.000000 1.562500 1.875000 
0.000000 1.562500 2.031250 
0.000000 1.562500 2.187500 
0.000000 1.562500 2.343750 
0.000000 1.562500 2.500000 
0.000000 1.562500 2.656250 
0.000000 1.562500 2.812500 
0.000000 1.562500 2.968750 
0.000000 1.562500 3.125000 
0.000000 1.562500 3.281250 
0.000000 1.562500 3.437500 
0.000000 1.562500 3.593750 
0.000000 1.562500 3.750000 
0.000000 1.562500 3.906250 
0.000000 1.562500 4.062500 
0.000000 1.562500 4.218750 
0.000000 1.562500 4.375000 
[...]
CELL_DATA 8192 
SCALARS density float 1 
LOOKUP_TABLE default 
0.999229 
0.999229 
0.999229 
0.999229 
0.993168 
0.478799 
0.010000 
0.010000 
0.010000 
0.010000 
0.010000 
0.010000 
0.010000 
0.010000 
0.010000 
0.010000 
0.010000 
0.010000 
0.010000 
0.010000 
0.010000 
0.010000 
0.010000 
0.010000 
0.010000 
0.010000 
0.010000 
0.010000 
0.032792 
0.199956 
0.278278 
0.278278 
0.278278 
0.248440 
0.082023 
0.010000 
0.010000 
0.010000 
0.010000 
0.010000 
0.010000 
0.010000 
0.010000 
0.010000 
0.010000 
0.010000 
0.010000 
0.010000 
0.010000 
0.010000 
0.010000 
0.010000 
0.010000 
0.010000 
0.010000 
0.010000 
0.132998 
0.734742 
0.999229 
0.999229 
0.999229 
0.999229 
0.999229 
0.999229 
0.999229 
0.999229 
0.999229 
0.999229 
0.999229 
0.556021 
0.016037 
0.010000 
0.010000 
0.010000 
0.010000 
0.010000 
0.010000 
0.010000 
0.010000 
0.010000 
0.010000 
0.010000 
0.010000 
0.010000 
0.010000 
0.010000 
0.010000 
0.010000 
0.010000 
0.010000 
0.010000 
0.010000 
0.031802 
0.198729 
0.278278 
0.278278 
0.278278 
0.249405 
0.083260 
0.010000 
0.010000 
0.010000 
0.010000 
0.010000 
0.010000 
0.010000 
0.010000 
0.010000 
0.010000 
0.010000 
0.010000 
0.010000 
0.010000 
0.010000 
0.010000 
0.010000 
0.010000 
0.010000 
0.010000 
0.010000 
0.211614 
0.818354 
0.999229 
0.999229 
0.999229 
0.999229 
0.999229 
0.999229 
0.999229 
0.999229 
0.999229 
0.999229 
0.999229 
0.619726 
0.048695 
0.010000 
0.010000 
0.010000 
0.010000 
0.010000 
0.010000 
0.010000 
0.010000 
0.010000 
0.010000 
0.010000 
0.010000 
0.010000 
0.010000 
0.010000 
0.010000 
0.010000 
0.010000 
0.010000 
0.010000 
0.010000 
0.030820 
0.197499 
0.278278 
0.278278 
0.278278 
0.250360 
0.084500 
0.010000 
0.010000 
0.010000 
0.010000 
0.010000 
0.010000 
0.010000 
0.010000 
0.010000 
0.010000 
0.010000 
0.010000 
0.010000 
0.010000 
0.010000 
0.010000 
0.010000 
0.010000 
0.010000 
0.010000 
0.010000 
0.297694 
0.893289 
0.999229 
0.999229 
0.999229 
0.999229 
0.999229 
0.999229 
0.999229 
0.999229 
0.999229 
0.999229 
0.999229 
0.682168 
0.090563 
0.010000 
0.010000 
0.010000 
0.010000 
0.010000 
0.010000 
0.010000 
0.010000 
0.010000 
0.010000 
0.010000 
0.010000 
0.010000 
0.010000 
0.010000 
0.010000 
0.010000 
0.010000 
0.010000 
0.010000 
0.010000 
0.029847 
0.196266 
0.278278 
0.278278 
0.278278 
0.251307 
0.085744 
0.010000 
0.010000 
0.010000 
0.010000 
0.010000 
0.010000 
0.010000 
0.010000 
0.010000 
0.010000 
0.010000 
0.010000 
0.010000 
0.010000 
0.010000 
0.010000 
0.010000 
0.010000 
0.010000 
0.010000 
0.010000 
0.388541 
0.955324 
0.999229 
0.999229 
0.999229 
0.999229 
0.999229 
0.999229 
0.999229 
0.999229 
0.999229 
0.999229 
0.999229 
0.742622 
0.139022 
0.010000 
0.010000 
0.010000 
0.010000 
0.010000 
0.010000 
0.010000 
0.010000 
0.010000 
0.010000 
0.010000 
0.010000 
0.010000 
0.010000 
0.010000 
0.010000 
0.010000 
0.010000 
0.010000 
0.010000 
0.010000 
0.028883 
0.195029 
0.278278 
0.278278 
0.278278 
0.252244 
0.086990 
0.010000 
0.010000 
0.010000 
0.010000 
0.010000 
0.010000 
0.010000 
0.010000 
0.010000 
0.010000 
0.010000 
0.010000 
0.010000 
0.010000 
0.010000 
0.010000 
0.010000 
0.010000 
0.010000 
0.010000 
0.010000 
0.481874 
0.996031 
0.999229 
0.999229 
0.999229 
0.999229 
0.999229 
0.999229 
0.999229 
0.999229 
0.999229 
0.999229 
0.999229 
0.800288 
0.192478 
0.010000 
0.010000 
0.010000 
0.010000 
0.010000 
0.010000 
0.010000 
0.010000 
0.010000 
0.010000 
0.010000 
0.010000 
0.010000 
0.010000 
0.010000 
0.010000 
0.010000 
0.010000 
0.010000 
0.010000 
0.010000 
0.027927 
0.193789 
0.278278 
0.278278 
0.278278 
0.253172 
0.088240 
0.010000 
0.010000 
0.010000 
0.010000 
0.010000 
0.010000 
0.010000 
0.010000 
0.010000 
0.010000 
0.010000 
0.010000 
0.010000 
0.010000 
0.010000 
0.010000 
0.010000 
0.010000 
0.010000 
0.010000 
0.025225 
0.575596 
0.999229 
0.999229 
0.999229 
0.999229 
0.999229 
0.999229 
0.999229 
0.999229 
0.999229 
0.999229 
0.999229 
0.999229 
0.854243 
0.249765 
0.010000 
0.010000 
0.010000 
0.010000 
0.010000 
0.010000 
0.010000 
0.010000 
0.010000 
0.010000 
0.010000 
0.010000 
0.010000 
0.010000 
0.010000 
0.010000 
0.010000 
0.010000 
0.010000 
0.010000 
0.010000 
0.026981 
0.192546 
0.278278 
0.278278 
0.278278 
0.254090 
0.089492 
0.010000 
0.010000 
0.010000 
0.010000 
0.010000 
0.010000 
0.010000 
0.010000 
0.010000 
0.010000 
0.010000 
0.010000 
0.010000 
0.010000 
0.010000 
0.010000 
0.010000 
0.010000 
0.010000 
0.010000 
0.080682 
0.667636 
0.999229 
0.999229 
0.999229 
0.999319 
1.001638 
1.001639 
1.001639 
0.999232 
0.999230 
0.999229 
0.999229 
0.999229 
0.903352 
0.309939 
0.010000 
0.010000 
0.010000 
0.010000 
0.010000 
0.010000 
0.010000 
0.010000 
0.010000 
0.010000 
0.010000 
0.010000 
0.010000 
0.010000 
0.010000 
0.010000 
0.010000 
0.010000 
0.010000 
0.010000 
0.010000 
0.026044 
0.191300 
0.278278 
0.278278 
0.278278 
0.254998 
0.090747 
0.010000 
0.010000 
0.010000 
0.010000 
0.010000 
0.010000 
0.010000 
0.010000 
0.010000 
0.010000 
0.010000 
0.010000 
0.010000 
0.010000 
0.010000 
0.010000 
0.010000 
0.010000 
0.010000 
0.010000 
0.151350 
0.755806 
0.999229 
0.999229 
0.999327 
1.001639 
1.001639 
1.001639 
1.001639 
1.001761 
1.001761 
1.001476 
0.999240 
0.999229 
0.946088 
0.372189 
0.010000 
0.010000 
0.010000 
0.010000 
0.010000 
0.010000 
0.010000 
0.010000 
0.010000 
0.010000 
0.010000 
0.010000 
0.010000 
0.010000 
0.010000 
0.010000 
0.010000 
0.010000 
0.010000 
0.010000 
0.010000 
0.025117 
0.190050 
0.278278 
0.278278 
0.278278 
0.255896 
0.092005 
0.010000 
0.010000 
0.010000 
0.010000 
0.010000 
0.010000 
0.010000 
0.010000 
0.010000 
0.010000 
0.010000 
0.010000 
0.010000 
0.010000 
0.010000 
0.010000 
0.010000 
0.010000 
0.010000 
0.010000 
0.232076 
0.837602 
0.999229 
0.999315 
1.001639 
1.001639 
1.001639 
1.001639 
1.001639 
1.001761 
1.001761 
1.001761 
1.000818 
0.999231 
0.980051 
0.435783 
0.010000 
0.010000 
0.010000 
0.010000 
0.010000 
0.010000 
0.010000 
0.010000 
0.010000 
0.010000 
0.010000 
0.010000 
0.010000 
0.010000 
0.010000 
0.010000 
0.010000 
0.010000 
0.010000 
0.010000 
0.010000 
0.024199 
0.188798 
0.278278 
0.278278 
0.278278 
0.256783 
0.093266 
0.010000 
0.010000 
0.010000 
0.010000 
0.010000 
0.010000 
0.010000 
0.010000 
0.010000 
0.010000 
0.010000 
0.010000 
0.010000 
0.010000 
0.010000 
0.010000 
0.010000 
0.010000 
0.010000 
0.010000 
0.319550 
0.909850 
0.999305 
1.001639 
1.001639 
1.001639 
1.001639 
1.001639 
0.999297 
1.001761 
1.001761 
1.001761 
1.001761 
1.000130 
0.999220 
0.500037 
0.010000 
0.010000 
0.010000 
0.010000 
0.010000 
0.010000 
0.010000 
0.010000 
0.010000 
0.010000 
0.010000 
0.010000 
0.010000 
0.010000 
0.010000 
0.010000 
0.010000 
0.010000 
0.010000 
0.010000 
0.010000 
0.023292 
0.187543 
0.278278 
0.278278 
0.278278 
0.257660 
0.094529 
0.010000 
0.010000 
0.010000 
0.010000 
0.010000 
0.010000 
0.010000 
0.010000 
0.010000 
0.010000 
0.010000 
0.010000 
0.010000 
0.010000 
0.010000 
0.010000 
0.010000 
0.010000 
0.010000 
0.010000 
0.411205 
0.967860 
1.001639 
1.001639 
1.001639 
1.001639 
1.001639 
0.999306 
0.982097 
1.000683 
1.001761 
1.001761 
1.001761 
1.001761 
0.999665 
0.564288 
0.019562 
0.010000 
0.010000 
0.010000 
0.010000 
0.010000 
0.010000 
0.010000 
0.010000 
0.010000 
0.010000 
0.010000 
0.010000 
0.010000 
0.010000 
0.010000 
0.010000 
0.010000 
0.010000 
0.010000 
0.010000 
0.022395 
0.186285 
0.278280 
0.278541 
0.283033 
0.264796 
0.122698 
0.010002 
0.010000 
0.010000 
0.010000 
0.010000 
0.010000 
0.010000 
0.010000 
0.010000 
0.010000 
0.010000 
0.010000 
0.010000 
0.010000 
0.010000 
0.010000 
0.010000 
0.010000 
0.010000 
0.058504 
0.511459 
1.001639 
1.001639 
1.001639 
1.001639 
1.001639 
0.999316 
0.999229 
0.930494 
0.999238 
1.001445 
1.001761 
1.001761 
1.001761 
1.001761 
0.632393 
0.096206 
0.010000 
0.010000 
0.010000 
0.010000 
0.010000 
0.010000 
0.010000 
0.010000 
0.010000 
0.010000 
0.010000 
0.010000 
0.010000 
0.010000 
0.019213 
0.072745 
0.139815 
0.212380 
0.284356 
0.349489 
0.398807 
0.414046 
0.442316 
0.444955 
0.428435 
0.416155 
0.410914 
0.243753 
0.114711 
0.057353 
0.013285 
0.010000 
0.010000 
0.010000 
0.010000 
0.010000 
0.010000 
0.010000 
0.010000 
0.010000 
0.010000 
0.010000 
0.010000 
0.010000 
0.010000 
0.053870 
0.376752 
0.659438 
1.001639 
1.001639 
1.001639 
1.001639 
0.999328 
0.999229 
0.999229 
0.862232 
0.999229 
0.999264 
1.001761 
1.001761 
1.001761 
1.001761 
0.719430 
0.386013 
0.052565 
0.010000 
0.010000 
0.010000 
0.010000 
0.010000 
0.010000 
0.012986 
0.062991 
0.128534 
0.200647 
0.273115 
0.339824 
0.392584 
0.410115 
0.410115 
0.410115 
0.410115 
0.410115 
0.410115 
0.411418 
0.447816 
0.449005 
0.449005 
0.449005 
0.448495 
0.435211 
0.411187 
0.411096 
0.411096 
0.411096 
0.394016 
0.347791 
0.289444 
0.225286 
0.159859 
0.097422 
0.042951 
0.010003 
0.010000 
0.010000 
0.010000 
0.010000 
0.010000 
0.049347 
0.370324 
0.610649 
0.717827 
1.001639 
1.001639 
1.001639 
0.999341 
0.999229 
0.999229 
0.999229 
0.783133 
0.999229 
0.999229 
0.999339 
1.001761 
1.001761 
1.001761 
0.767734 
0.613314 
0.329378 
0.053613 
0.117419 
0.188923 
0.261728 
0.329817 
0.385589 
0.410115 
0.410115 
0.410115 
0.410115 
0.410115 
0.410115 
0.410115 
0.410115 
0.410115 
0.410115 
0.410115 
0.410115 
0.410115 
0.400322 
0.354117 
0.360393 
0.395758 
0.413330 
0.412440 
0.411097 
0.411096 
0.411096 
0.411096 
0.411096 
0.411096 
0.411096 
0.411096 
0.411096 
0.411096 
0.411096 
0.411096 
0.411096 
0.382576 
0.332004 
0.271472 
0.206517 
0.141503 
0.363877 
0.610649 
0.610651 
0.789859 
1.001639 
1.001639 
0.999355 
0.999229 
0.999229 
0.999229 
0.999229 
0.696731 
0.999229 
0.999229 
0.999229 
0.999518 
1.001761 
1.001763 
0.818365 
0.616052 
0.593721 
0.412018 
0.410115 
0.410115 
0.410115 
0.410115 
0.410115 
0.410115 
0.410115 
0.410115 
0.410115 
0.410115 
0.410115 
0.405313 
0.361184 
0.298362 
0.227233 
0.154313 
0.085586 
0.028402 
0.018918 
0.181227 
0.278278 
0.278278 
0.278278 
0.261879 
0.117098 
0.175485 
0.240991 
0.304199 
0.360332 
0.402096 
0.411096 
0.411096 
0.411096 
0.411096 
0.411096 
0.411096 
0.411096 
0.411096 
0.411096 
0.411096 
0.411096 
0.425873 
0.613811 
0.613811 
0.613643 
0.863366 
1.001651 
0.999372 
0.999229 
0.999229 
0.999229 
0.999229 
0.999229 
0.605694 
0.999273 
0.999327 
0.999330 
0.999330 
0.999975 
1.001860 
0.868194 
0.617528 
0.617457 
0.558862 
0.410417 
0.410115 
0.410115 
0.410115 
0.408963 
0.369905 
0.309175 
0.238898 
0.165869 
0.096041 
0.036362 
0.010000 
0.010000 
0.010000 
0.010000 
0.010000 
0.010000 
0.010000 
0.018080 
0.179956 
0.278278 
0.278278 
0.278278 
0.262687 
0.102160 
0.010000 
0.010000 
0.010000 
0.010000 
0.010000 
0.021991 
0.070268 
0.129650 
0.194209 
0.259495 
0.321219 
0.374206 
0.409174 
0.411096 
0.411096 
0.424062 
0.613811 
0.613811 
0.613811 
0.614515 
0.929834 
0.999490 
0.999332 
0.999332 
0.999332 
0.999332 
0.999332 
0.999310 
0.515637 
0.999330 
0.999330 
0.999330 
0.999330 
0.999331 
1.000560 
0.914303 
0.617837 
0.616049 
0.614896 
0.507917 
0.186290 
0.106748 
0.044858 
0.010000 
0.010000 
0.010000 
0.010000 
0.010000 
0.010000 
0.010000 
0.010000 
0.010000 
0.010000 
0.010000 
0.010000 
0.010000 
0.010000 
0.017255 
0.178683 
0.278278 
0.278278 
0.278278 
0.263483 
0.103439 
0.010000 
0.010000 
0.010000 
0.010000 
0.010000 
0.010000 
0.010000 
0.010000 
0.010000 
0.010000 
0.010000 
0.010000 
0.010000 
0.036429 
0.344443 
0.610629 
0.610665 
0.610788 
0.611311 
0.617330 
0.979163 
0.999332 
0.999332 
0.999332 
0.999332 
0.999332 
0.999332 
0.971663 
0.452526 
0.999330 
0.999291 
0.999247 
0.999232 
0.999229 
0.999235 
0.953833 
0.616123 
0.614484 
0.614484 
0.614484 
0.457212 
0.110754 
0.010000 
0.010000 
0.010000 
0.010000 
0.010000 
0.010000 
0.010000 
0.010000 
0.010000 
0.010000 
0.010000 
0.010000 
0.010000 
0.010000 
0.010000 
0.016445 
0.177408 
0.278278 
0.278278 
0.278278 
0.264267 
0.104721 
0.010000 
0.010000 
0.010000 
0.010000 
0.010000 
0.010000 
0.010000 
0.010000 
0.010000 
0.010000 
0.010000 
0.010000 
0.028620 
0.337939 
0.609748 
0.610649 
0.610649 
0.610649 
0.610649 
0.543284 
0.999229 
0.999229 
0.999229 
0.999229 
0.999230 
0.999237 
0.999260 
0.915206 
0.418756 
0.999229 
0.999229 
0.999229 
0.999229 
0.999229 
0.999229 
0.983614 
0.620019 
0.614484 
0.614484 
0.614484 
0.614484 
0.403123 
0.065163 
0.010000 
0.010000 
0.010000 
0.010000 
0.010000 
0.010000 
0.010000 
0.010000 
0.010000 
0.010000 
0.010000 
0.010000 
0.010000 
0.010000 
0.015653 
0.176130 
0.278278 
0.278278 
0.278278 
0.265037 
0.106004 
0.010000 
0.010000 
0.010000 
0.010000 
0.010000 
0.010000 
0.010000 
0.010000 
0.010000 
0.010000 
0.010000 
0.024904 
0.331427 
0.608257 
0.610649 
0.610649 
0.610649 
0.610649 
0.452218 
0.620928 
0.999229 
0.999229 
0.999229 
0.999229 
0.999229 
0.999229 
0.999229 
0.843743 
0.238820 
0.999229 
0.999229 
0.999229 
0.999229 
0.999229 
0.999229 
0.999229 
0.516738 
0.614484 
0.614484 
0.614484 
0.614484 
0.614484 
0.346885 
0.027342 
0.010000 
0.010000 
0.010000 
0.010000 
0.010000 
0.010000 
0.010000 
0.010000 
0.010000 
0.010000 
0.010000 
0.010000 
0.010000 
0.014881 
0.174851 
0.278278 
0.278278 
0.278278 
0.265793 
0.107289 
0.010000 
0.010000 
0.010000 
0.010000 
0.010000 
0.010000 
0.010000 
0.010000 
0.010000 
0.010000 
0.021355 
0.324907 
0.606356 
0.610649 
0.610649 
0.610649 
0.610649 
0.458214 
0.128867 
0.711363 
0.999229 
0.999229 
0.999229 
0.999229 
0.999229 
0.999229 
0.999229 
0.762578 
0.157450 
0.999229 
0.999229 
0.999229 
0.999229 
0.999229 
0.999229 
0.999229 
0.572542 
0.451956 
0.614484 
0.614484 
0.614484 
0.614484 
0.598892 
0.289789 
0.010000 
0.010000 
0.010000 
0.010000 
0.010000 
0.010000 
0.010000 
0.010000 
0.010000 
0.010000 
0.010000 
0.010000 
0.010000 
0.014133 
0.173569 
0.278278 
0.278278 
0.278278 
0.266536 
0.108576 
0.010000 
0.010000 
0.010000 
0.010000 
0.010000 
0.010000 
0.010000 
0.010000 
0.010000 
0.017991 
0.318382 
0.604126 
0.610649 
0.610649 
0.610649 
0.610649 
0.464162 
0.127406 
0.189783 
0.796760 
0.999229 
0.999229 
0.999229 
0.999229 
0.999229 
0.999229 
0.999229 
0.674817 
0.085831 
0.999229 
0.999229 
0.999229 
0.999229 
0.999229 
0.999229 
0.999229 
0.635988 
0.156352 
0.502871 
0.614484 
0.614484 
0.614484 
0.614484 
0.565149 
0.233069 
0.010000 
0.010000 
0.010000 
0.010000 
0.010000 
0.010000 
0.010000 
0.010000 
0.010000 
0.010000 
0.010000 
0.010000 
0.013415 
0.172286 
0.278278 
0.278278 
0.278278 
0.267265 
0.109865 
0.010000 
0.010000 
0.010000 
0.010000 
0.010000 
0.010000 
0.010000 
0.010000 
0.014860 
0.311854 
0.601613 
0.610649 
0.610649 
0.610649 
0.610649 
0.470059 
0.133178 
0.010000 
0.274162 
0.874350 
0.999229 
0.999229 
0.999229 
0.999229 
0.999229 
0.999229 
0.999229 
0.583002 
0.028882 
0.999229 
0.999229 
0.999229 
0.999229 
0.999229 
0.999229 
0.999229 
0.697989 
0.102511 
0.210383 
0.548574 
0.614484 
0.614484 
0.614484 
0.614484 
0.522215 
0.177983 
0.010000 
0.010000 
0.010000 
0.010000 
0.010000 
0.010000 
0.010000 
0.010000 
0.010000 
0.010000 
0.010000 
0.012737 
0.171001 
0.278278 
0.278278 
0.278278 
0.267979 
0.111155 
0.010000 
0.010000 
0.010000 
0.010000 
0.010000 
0.010000 
0.010000 
0.012149 
0.305323 
0.598852 
0.610649 
0.610649 
0.610649 
0.610649 
0.475902 
0.139007 
0.010000 
0.010000 
0.363972 
0.940370 
0.999229 
0.999229 
0.999229 
0.999229 
0.999229 
0.999229 
0.997677 
0.489337 
0.010000 
0.999229 
0.999229 
0.999229 
0.999229 
0.999229 
0.999229 
0.999229 
0.757804 
0.152390 
0.010000 
0.266595 
0.586563 
0.614484 
0.614484 
0.614484 
0.614484 
0.473179 
0.125906 
0.010000 
0.010000 
0.010000 
0.010000 
0.010000 
0.010000 
0.010000 
0.010000 
0.010000 
0.010000 
0.012111 
0.169714 
0.278278 
0.278278 
0.278278 
0.268679 
0.112447 
0.010000 
0.010000 
0.010000 
0.010000 
0.010000 
0.010000 
0.010470 
0.298792 
0.595867 
0.610649 
0.610649 
0.610649 
0.610649 
0.481689 
0.144889 
0.010000 
0.010000 
0.010000 
0.456852 
0.988239 
0.999229 
0.999229 
0.999229 
0.999229 
0.999229 
0.999229 
0.959514 
0.395898 
0.010000 
0.999109 
0.999229 
0.999229 
0.999229 
0.999229 
0.999229 
0.999229 
0.814608 
0.206935 
0.010000 
0.015177 
0.323686 
0.611957 
0.614484 
0.614484 
0.614484 
0.614484 
0.420032 
0.078482 
0.010000 
0.010000 
0.010000 
0.010000 
0.010000 
0.010000 
0.010000 
0.010000 
0.010000 
0.011553 
0.168425 
0.278278 
0.278278 
0.278278 
0.269362 
0.113741 
0.010000 
0.010000 
0.010000 
0.010000 
0.010000 
0.010040 
0.292264 
0.592677 
0.610649 
0.610649 
0.610649 
0.610649 
0.487418 
0.150823 
0.010000 
0.010000 
0.010000 
0.014286 
0.550671 
0.999229 
0.999229 
0.999229 
0.999229 
0.999229 
0.999229 
0.999229 
0.898762 
0.304774 
0.010000 
0.979260 
0.999229 
0.999229 
0.999229 
0.999229 
0.999229 
0.999229 
0.867432 
0.265051 
0.010000 
0.010000 
0.048647 
0.380423 
0.614484 
0.614484 
0.614484 
0.614484 
0.614484 
0.364311 
0.037924 
0.010000 
0.010000 
0.010000 
0.010000 
0.010000 
0.010000 
0.010000 
0.010000 
0.011080 
0.167135 
0.278278 
0.278278 
0.278278 
0.270030 
0.115035 
0.010000 
0.010000 
0.010000 
0.010000 
0.010001 
0.285739 
0.589299 
0.610649 
0.610649 
0.610649 
0.610649 
0.493085 
0.156807 
0.010000 
0.010000 
0.010000 
0.010000 
0.064106 
0.643366 
0.999229 
0.999229 
0.999229 
0.999229 
0.999229 
0.999229 
0.999229 
0.824673 
0.218223 
0.037980 
0.945004 
0.999229 
0.999229 
0.999229 
0.999229 
0.999229 
0.999229 
0.915064 
0.325834 
0.010000 
0.010000 
0.010000 
0.091451 
0.435550 
0.614484 
0.614484 
0.614484 
0.614484 
0.606546 
0.307347 
0.010199 
0.010000 
0.010000 
0.010000 
0.010000 
0.010000 
0.010000 
0.010000 
0.010705 
0.165843 
0.278278 
0.278278 
0.278278 
0.270681 
0.116331 
0.010000 
0.010000 
0.010000 
0.010000 
0.279219 
0.585745 
0.610649 
0.610649 
0.610649 
0.610649 
0.498688 
0.162837 
0.010000 
0.010000 
0.010000 
0.010000 
0.010000 
0.131349 
0.732796 
0.999229 
0.999229 
0.999229 
0.999229 
0.999229 
0.999229 
1.000389 
0.937238 
0.997703 
0.997703 
0.902065 
0.999229 
0.999229 
0.999229 
0.999229 
0.999229 
0.999229 
0.955823 
0.388499 
0.010000 
0.010000 
0.010000 
0.010000 
0.140398 
0.487693 
0.614484 
0.614484 
0.614484 
0.614484 
0.576693 
0.250381 
0.010000 
0.010000 
0.010000 
0.010000 
0.010000 
0.010000 
0.010000 
0.010431 
0.164549 
0.278278 
0.278278 
0.278278 
0.271315 
0.117629 
0.010000 
0.010000 
0.010000 
0.272707 
0.582028 
0.610649 
0.610649 
0.610649 
0.610649 
0.504223 
0.168912 
0.010000 
0.010000 
0.010000 
0.010000 
0.010000 
0.010000 
0.209762 
0.816566 
0.999229 
0.999229 
0.999229 
0.999229 
0.999229 
0.999943 
1.088837 
1.001825 
0.997703 
0.997703 
0.852804 
0.999229 
0.999229 
0.999229 
0.999229 
0.999229 
0.999229 
0.986884 
0.452328 
0.010000 
0.010000 
0.010000 
0.010000 
0.010000 
0.193487 
0.535216 
0.614484 
0.614484 
0.614484 
0.614484 
0.536166 
0.194653 
0.010000 
0.010000 
0.010000 
0.010000 
0.010000 
0.010000 
0.010006 
0.153918 
0.278278 
0.278278 
0.278278 
0.264290 
0.109876 
0.010000 
0.010000 
0.266204 
0.578157 
0.610649 
0.610649 
0.610649 
0.610649 
0.509689 
0.175029 
0.010000 
0.010000 
0.010000 
0.010000 
0.010000 
0.010000 
0.010000 
0.295707 
0.891734 
0.999229 
0.999229 
0.999229 
0.999229 
0.999229 
1.001063 
1.088837 
0.998930 
0.997703 
0.997703 
0.798732 
0.999229 
0.999229 
0.999229 
0.999229 
0.999229 
0.999229 
0.999229 
0.516644 
0.010000 
0.010000 
0.010000 
0.010000 
0.010000 
0.010000 
0.249174 
0.575920 
0.614484 
0.614484 
0.614484 
0.614484 
0.488762 
0.141493 
0.010000 
0.010000 
0.010000 
0.010000 
0.010000 
0.010000 
0.010000 
0.077972 
0.133860 
0.125082 
0.057003 
0.010000 
0.010000 
0.259712 
0.574141 
0.610649 
0.610649 
0.610649 
0.610649 
0.515081 
0.181185 
0.010000 
0.010000 
0.010000 
0.010000 
0.010000 
0.010000 
0.010000 
0.010000 
0.386473 
0.954122 
0.999229 
0.999229 
0.999229 
0.999229 
0.999229 
1.003125 
1.084692 
0.997987 
0.997703 
0.997703 
0.740977 
0.999230 
0.999229 
0.999229 
0.999229 
0.999229 
0.999229 
0.999229 
0.580785 